#####################################################################
#
# Data extracted from the COD database via the CrystalWorks 
# system developed and maintained by the STFC Chemical Database Service
# at Daresbury
#
# The COD collection code is 2104751
#
#
# Database specific statement:
#
#               Crystallography Open Database
#
# This CIF has been generated from an entry in the COD
# All data on this site have been placed in the public
# domain by the contributors.
#
#
# Bulk downloading of CIF information from the CDS/DL server by 
# any means is specifically forbidden
#
#####################################################################
data_2104751-COD
_journal_volume 66
_journal_page_first 271
_journal_name_full 'Acta Cryst. B'
_journal_year 2010
loop_
_publ_author_name
A. D. Elliot,
_chemical_formula_moiety
;
Fe7 S8
;
_chemical_name_systematic
;
;
_cell_length_a    11.938
_cell_length_b     6.852
_cell_length_c    12.946
_cell_angle_alpha    90.000
_cell_angle_beta   117.831
_cell_angle_gamma    90.000
_cell_volume    936.479251
_symmetry_Int_tables_number  15
loop_
_symmetry_equiv_pos_site_id
_symmetry_equiv_pos_as_xyz
  1 X,Y,Z
  2 1/2+X,1/2+Y,Z
  3 X,-Y,1/2+Z
  4 1/2+X,1/2-Y,1/2+Z
  5 -X,-Y,-Z
  6 1/2-X,1/2-Y,-Z
  7 -X,Y,1/2-Z
  8 1/2-X,1/2+Y,1/2-Z
_space_group_symop_operation_xyz
  'x,y,z'
  '1/2+x,1/2+y,z'
  'x,-y,1/2+z'
  '1/2+x,1/2-y,1/2+z'
  '-x,-y,-z'
  '1/2-x,1/2-y,-z'
  '-x,y,1/2-z'
  '1/2-x,1/2+y,1/2-z'
loop_
_atom_site_label
_atom_site_type_symbol
_atom_site_symmetry_multiplicity
_atom_site_fract_x
_atom_site_fract_y
_atom_site_fract_z
_atom_site_occupancy
Fe1   Fe   8   0.12600   0.09810   0.99080 1.00000
Fe2   Fe   8   0.25600   0.12660   0.24620 1.00000
Fe3   Fe   8   0.35940   0.14010   0.50000 1.00000
Fe4   Fe   4   0.00000   0.39310   0.25000 1.00000
S1    S    8   0.89570   0.12280   0.87550 1.00000
S2    S    8   0.35310   0.12510   0.12340 1.00000
S3    S    8   0.86010   0.12540   0.13780 1.00000
S4    S    8   0.60240   0.12410   0.62060 1.00000
